version 3
run IPsecBlocking-0-20251030-17:03:38-14064
attr configname IPsecBlocking
attr datetime 20251030-17:03:38
attr datetimef 20251030-170338
attr experiment IPsecBlocking
attr inifile omnetpp.ini
attr iterationvars ""
attr iterationvarsd ""
attr iterationvarsf ""
attr measurement ""
attr network vpnblocking.VPNBlockNetwork
attr processid 14064
attr repetition 0
attr replication #0
attr resultdir results
attr runnumber 0
attr seedset 0
config image-path ../inet4.5/images
config description "Block IPsec VPN traffic"
config **.client.app[0].simulateIPsec true
config network vpnblocking.VPNBlockNetwork
config sim-time-limit 100s
config cmdenv-express-mode true
config cmdenv-autoflush true
config **.vector-recording true
config **.scalar-recording true
config **.client.numApps 1
config **.client.app[0].typename VPNTrafficApp
config **.client.app[0].localPort 5000
config **.client.app[0].destPort 5000
config **.client.app[0].destAddresses "\"blockedServer\""
config **.client.app[0].startTime 1s
config **.client.app[0].stopTime 90s
config **.client.app[0].sendInterval exponential(0.5s)
config **.client.app[0].packetLength 1200B
config **.client.app[0].simulateIPsec true
config **.blockedServer.numApps 1
config **.blockedServer.app[0].typename UdpBasicApp
config **.blockedServer.app[0].localPort 5000
config **.client.eth[*].bitrate 100Mbps
config **.gateway.eth[*].bitrate 100Mbps
config **.blockedServer.eth[*].bitrate 100Mbps

vector 0 VPNBlockNetwork.client.eth[0].queue queueLength:vector ETV
attr autoWarmupFilter false
attr interpolationmode sample-hold
attr recordingmode vector
attr source "warmup(atomic(constant0(packetPushEnded) + count(packetPushStarted) - count(packetPulled) - count(packetRemoved) - count(packetDropped)))"
attr title "queue length"
attr unit pk
vector 1 VPNBlockNetwork.client.eth[0].queue queueBitLength:vector ETV
attr autoWarmupFilter false
attr interpolationmode sample-hold
attr recordingmode vector
attr source "warmup(atomic(constant0(packetPushEnded) + sum(packetLength(packetPushStarted)) - sum(packetLength(packetPulled)) - sum(packetLength(packetRemoved)) - sum(packetLength(packetDropped))))"
attr title "queue bit length"
attr unit b
vector 2 VPNBlockNetwork.client.udp passedUpPk:vector(count) ETV
attr interpolationmode none
attr recordingmode vector(count)
attr source packetSentToUpper
attr title "packets passed up, count"
vector 3 VPNBlockNetwork.client.udp droppedPkWrongPort:vector(count) ETV
attr interpolationmode none
attr recordingmode vector(count)
attr source packetDropReasonIsNoPortFound(packetDropped)
attr title "packets dropped (wrong port), count"
vector 4 VPNBlockNetwork.client.udp droppedPkBadChecksum:vector(count) ETV
attr interpolationmode none
attr recordingmode vector(count)
attr source packetDropReasonIsIncorrectlyReceived(packetDropped)
attr title "packets dropped (checksum error), count"
vector 5 VPNBlockNetwork.gateway.eth[0].queue queueLength:vector ETV
attr autoWarmupFilter false
attr interpolationmode sample-hold
attr recordingmode vector
attr source "warmup(atomic(constant0(packetPushEnded) + count(packetPushStarted) - count(packetPulled) - count(packetRemoved) - count(packetDropped)))"
attr title "queue length"
attr unit pk
vector 6 VPNBlockNetwork.gateway.eth[0].queue queueBitLength:vector ETV
attr autoWarmupFilter false
attr interpolationmode sample-hold
attr recordingmode vector
attr source "warmup(atomic(constant0(packetPushEnded) + sum(packetLength(packetPushStarted)) - sum(packetLength(packetPulled)) - sum(packetLength(packetRemoved)) - sum(packetLength(packetDropped))))"
attr title "queue bit length"
attr unit b
vector 7 VPNBlockNetwork.gateway.eth[1].queue queueLength:vector ETV
attr autoWarmupFilter false
attr interpolationmode sample-hold
attr recordingmode vector
attr source "warmup(atomic(constant0(packetPushEnded) + count(packetPushStarted) - count(packetPulled) - count(packetRemoved) - count(packetDropped)))"
attr title "queue length"
attr unit pk
vector 8 VPNBlockNetwork.gateway.eth[1].queue queueBitLength:vector ETV
attr autoWarmupFilter false
attr interpolationmode sample-hold
attr recordingmode vector
attr source "warmup(atomic(constant0(packetPushEnded) + sum(packetLength(packetPushStarted)) - sum(packetLength(packetPulled)) - sum(packetLength(packetRemoved)) - sum(packetLength(packetDropped))))"
attr title "queue bit length"
attr unit b
vector 9 VPNBlockNetwork.blockedServer.eth[0].queue queueLength:vector ETV
attr autoWarmupFilter false
attr interpolationmode sample-hold
attr recordingmode vector
attr source "warmup(atomic(constant0(packetPushEnded) + count(packetPushStarted) - count(packetPulled) - count(packetRemoved) - count(packetDropped)))"
attr title "queue length"
attr unit pk
vector 10 VPNBlockNetwork.blockedServer.eth[0].queue queueBitLength:vector ETV
attr autoWarmupFilter false
attr interpolationmode sample-hold
attr recordingmode vector
attr source "warmup(atomic(constant0(packetPushEnded) + sum(packetLength(packetPushStarted)) - sum(packetLength(packetPulled)) - sum(packetLength(packetRemoved)) - sum(packetLength(packetDropped))))"
attr title "queue bit length"
attr unit b
vector 11 VPNBlockNetwork.blockedServer.udp passedUpPk:vector(count) ETV
attr interpolationmode none
attr recordingmode vector(count)
attr source packetSentToUpper
attr title "packets passed up, count"
vector 12 VPNBlockNetwork.blockedServer.udp droppedPkWrongPort:vector(count) ETV
attr interpolationmode none
attr recordingmode vector(count)
attr source packetDropReasonIsNoPortFound(packetDropped)
attr title "packets dropped (wrong port), count"
vector 13 VPNBlockNetwork.blockedServer.udp droppedPkBadChecksum:vector(count) ETV
attr interpolationmode none
attr recordingmode vector(count)
attr source packetDropReasonIsIncorrectlyReceived(packetDropped)
attr title "packets dropped (checksum error), count"
vector 14 VPNBlockNetwork.client.udp packetSent:vector(packetBytes) ETV
attr interpolationmode none
attr recordingmode vector(packetBytes)
attr source packetSent
attr title "packets sent, packetBytes"
vector 15 VPNBlockNetwork.client.ipv4.arp arpRequestSent:vector(packetBytes) ETV
attr recordingmode vector(packetBytes)
attr source arpRequestSent
attr title "ARP request sent, packetBytes"
vector 16 VPNBlockNetwork.client.ethernet encapPk:vector(packetBytes) ETV
attr interpolationmode none
attr recordingmode vector(packetBytes)
attr source encapPk
attr title "packets encapsulated, packetBytes"
vector 17 VPNBlockNetwork.client.eth[0].queue incomingPacketLengths:vector ETV
attr interpolationmode none
attr recordingmode vector
attr source packetLength(packetPushStarted)
attr title "incoming packet lengths"
attr unit b
vector 18 VPNBlockNetwork.client.eth[0].queue incomingDataRate:vector ETV
attr interpolationmode linear
attr recordingmode vector
attr source throughput(packetPushStarted)
attr title "incoming datarate"
attr unit bps
vector 19 VPNBlockNetwork.client.eth[0].queue queueingTime:vector ETV
attr interpolationmode none
attr recordingmode vector
attr source queueingTime(packetPulled)
attr title "queueing times"
attr unit s
vector 20 VPNBlockNetwork.client.eth[0].queue outgoingPacketLengths:vector ETV
attr interpolationmode none
attr recordingmode vector
attr source packetLength(packetPulled)
attr title "outgoing packet lengths"
attr unit b
vector 21 VPNBlockNetwork.client.eth[0].queue outgoingDataRate:vector ETV
attr interpolationmode linear
attr recordingmode vector
attr source throughput(packetPulled)
attr title "outgoing datarate"
attr unit bps
vector 22 VPNBlockNetwork.client.eth[0].mac packetReceivedFromUpper:vector(packetBytes) ETV
attr interpolationmode none
attr recordingmode vector(packetBytes)
attr source packetReceivedFromUpper
attr title "packet bytes from higher layer, packetBytes"
vector 23 VPNBlockNetwork.client.eth[0].mac txPk:vector(packetBytes) ETV
attr interpolationmode none
attr recordingmode vector(packetBytes)
attr source packetSentToLower
attr title "packets transmitted, packetBytes"
vector 24 VPNBlockNetwork.gateway.eth[0].mac rxPkOk:vector(packetBytes) ETV
attr interpolationmode none
attr recordingmode vector(packetBytes)
attr source rxPkOk
attr title "packets received OK, packetBytes"
vector 25 VPNBlockNetwork.gateway.eth[0].mac passedUpPk:vector(packetBytes) ETV
attr interpolationmode none
attr recordingmode vector(packetBytes)
attr source packetSentToUpper
attr title "packets passed to higher layer, packetBytes"
vector 26 VPNBlockNetwork.gateway.ethernet decapPk:vector(packetBytes) ETV
attr interpolationmode none
attr recordingmode vector(packetBytes)
attr source decapPk
attr title "packets decapsulated, packetBytes"
vector 27 VPNBlockNetwork.gateway.ipv4.arp arpReplySent:vector(packetBytes) ETV
attr recordingmode vector(packetBytes)
attr source arpReplySent
attr title "ARP replies sent, packetBytes"
vector 28 VPNBlockNetwork.gateway.ethernet encapPk:vector(packetBytes) ETV
attr interpolationmode none
attr recordingmode vector(packetBytes)
attr source encapPk
attr title "packets encapsulated, packetBytes"
vector 29 VPNBlockNetwork.gateway.eth[0].queue incomingPacketLengths:vector ETV
attr interpolationmode none
attr recordingmode vector
attr source packetLength(packetPushStarted)
attr title "incoming packet lengths"
attr unit b
vector 30 VPNBlockNetwork.gateway.eth[0].queue incomingDataRate:vector ETV
attr interpolationmode linear
attr recordingmode vector
attr source throughput(packetPushStarted)
attr title "incoming datarate"
attr unit bps
vector 31 VPNBlockNetwork.gateway.eth[0].queue queueingTime:vector ETV
attr interpolationmode none
attr recordingmode vector
attr source queueingTime(packetPulled)
attr title "queueing times"
attr unit s
vector 32 VPNBlockNetwork.gateway.eth[0].queue outgoingPacketLengths:vector ETV
attr interpolationmode none
attr recordingmode vector
attr source packetLength(packetPulled)
attr title "outgoing packet lengths"
attr unit b
vector 33 VPNBlockNetwork.gateway.eth[0].queue outgoingDataRate:vector ETV
attr interpolationmode linear
attr recordingmode vector
attr source throughput(packetPulled)
attr title "outgoing datarate"
attr unit bps
vector 34 VPNBlockNetwork.gateway.eth[0].mac packetReceivedFromUpper:vector(packetBytes) ETV
attr interpolationmode none
attr recordingmode vector(packetBytes)
attr source packetReceivedFromUpper
attr title "packet bytes from higher layer, packetBytes"
vector 35 VPNBlockNetwork.gateway.eth[0].mac txPk:vector(packetBytes) ETV
attr interpolationmode none
attr recordingmode vector(packetBytes)
attr source packetSentToLower
attr title "packets transmitted, packetBytes"
vector 36 VPNBlockNetwork.client.eth[0].mac rxPkOk:vector(packetBytes) ETV
attr interpolationmode none
attr recordingmode vector(packetBytes)
attr source rxPkOk
attr title "packets received OK, packetBytes"
vector 37 VPNBlockNetwork.client.eth[0].mac passedUpPk:vector(packetBytes) ETV
attr interpolationmode none
attr recordingmode vector(packetBytes)
attr source packetSentToUpper
attr title "packets passed to higher layer, packetBytes"
vector 38 VPNBlockNetwork.client.ethernet decapPk:vector(packetBytes) ETV
attr interpolationmode none
attr recordingmode vector(packetBytes)
attr source decapPk
attr title "packets decapsulated, packetBytes"
vector 39 VPNBlockNetwork.gateway.ipv4.arp arpRequestSent:vector(packetBytes) ETV
attr recordingmode vector(packetBytes)
attr source arpRequestSent
attr title "ARP request sent, packetBytes"
vector 40 VPNBlockNetwork.gateway.eth[1].queue incomingPacketLengths:vector ETV
attr interpolationmode none
attr recordingmode vector
attr source packetLength(packetPushStarted)
attr title "incoming packet lengths"
attr unit b
vector 41 VPNBlockNetwork.gateway.eth[1].queue incomingDataRate:vector ETV
attr interpolationmode linear
attr recordingmode vector
attr source throughput(packetPushStarted)
attr title "incoming datarate"
attr unit bps
vector 42 VPNBlockNetwork.gateway.eth[1].queue queueingTime:vector ETV
attr interpolationmode none
attr recordingmode vector
attr source queueingTime(packetPulled)
attr title "queueing times"
attr unit s
vector 43 VPNBlockNetwork.gateway.eth[1].queue outgoingPacketLengths:vector ETV
attr interpolationmode none
attr recordingmode vector
attr source packetLength(packetPulled)
attr title "outgoing packet lengths"
attr unit b
vector 44 VPNBlockNetwork.gateway.eth[1].queue outgoingDataRate:vector ETV
attr interpolationmode linear
attr recordingmode vector
attr source throughput(packetPulled)
attr title "outgoing datarate"
attr unit bps
vector 45 VPNBlockNetwork.gateway.eth[1].mac packetReceivedFromUpper:vector(packetBytes) ETV
attr interpolationmode none
attr recordingmode vector(packetBytes)
attr source packetReceivedFromUpper
attr title "packet bytes from higher layer, packetBytes"
vector 46 VPNBlockNetwork.gateway.eth[1].mac txPk:vector(packetBytes) ETV
attr interpolationmode none
attr recordingmode vector(packetBytes)
attr source packetSentToLower
attr title "packets transmitted, packetBytes"
vector 47 VPNBlockNetwork.blockedServer.eth[0].mac rxPkOk:vector(packetBytes) ETV
attr interpolationmode none
attr recordingmode vector(packetBytes)
attr source rxPkOk
attr title "packets received OK, packetBytes"
vector 48 VPNBlockNetwork.blockedServer.eth[0].mac passedUpPk:vector(packetBytes) ETV
attr interpolationmode none
attr recordingmode vector(packetBytes)
attr source packetSentToUpper
attr title "packets passed to higher layer, packetBytes"
vector 49 VPNBlockNetwork.blockedServer.ethernet decapPk:vector(packetBytes) ETV
attr interpolationmode none
attr recordingmode vector(packetBytes)
attr source decapPk
attr title "packets decapsulated, packetBytes"
vector 50 VPNBlockNetwork.blockedServer.ipv4.arp arpReplySent:vector(packetBytes) ETV
attr recordingmode vector(packetBytes)
attr source arpReplySent
attr title "ARP replies sent, packetBytes"
vector 51 VPNBlockNetwork.blockedServer.ethernet encapPk:vector(packetBytes) ETV
attr interpolationmode none
attr recordingmode vector(packetBytes)
attr source encapPk
attr title "packets encapsulated, packetBytes"
vector 52 VPNBlockNetwork.blockedServer.eth[0].queue incomingPacketLengths:vector ETV
attr interpolationmode none
attr recordingmode vector
attr source packetLength(packetPushStarted)
attr title "incoming packet lengths"
attr unit b
vector 53 VPNBlockNetwork.blockedServer.eth[0].queue incomingDataRate:vector ETV
attr interpolationmode linear
attr recordingmode vector
attr source throughput(packetPushStarted)
attr title "incoming datarate"
attr unit bps
vector 54 VPNBlockNetwork.blockedServer.eth[0].queue queueingTime:vector ETV
attr interpolationmode none
attr recordingmode vector
attr source queueingTime(packetPulled)
attr title "queueing times"
attr unit s
vector 55 VPNBlockNetwork.blockedServer.eth[0].queue outgoingPacketLengths:vector ETV
attr interpolationmode none
attr recordingmode vector
attr source packetLength(packetPulled)
attr title "outgoing packet lengths"
attr unit b
vector 56 VPNBlockNetwork.blockedServer.eth[0].queue outgoingDataRate:vector ETV
attr interpolationmode linear
attr recordingmode vector
attr source throughput(packetPulled)
attr title "outgoing datarate"
attr unit bps
vector 57 VPNBlockNetwork.blockedServer.eth[0].mac packetReceivedFromUpper:vector(packetBytes) ETV
attr interpolationmode none
attr recordingmode vector(packetBytes)
attr source packetReceivedFromUpper
attr title "packet bytes from higher layer, packetBytes"
vector 58 VPNBlockNetwork.blockedServer.eth[0].mac txPk:vector(packetBytes) ETV
attr interpolationmode none
attr recordingmode vector(packetBytes)
attr source packetSentToLower
attr title "packets transmitted, packetBytes"
vector 59 VPNBlockNetwork.gateway.eth[1].mac rxPkOk:vector(packetBytes) ETV
attr interpolationmode none
attr recordingmode vector(packetBytes)
attr source rxPkOk
attr title "packets received OK, packetBytes"
vector 60 VPNBlockNetwork.gateway.eth[1].mac passedUpPk:vector(packetBytes) ETV
attr interpolationmode none
attr recordingmode vector(packetBytes)
attr source packetSentToUpper
attr title "packets passed to higher layer, packetBytes"
vector 61 VPNBlockNetwork.blockedServer.udp packetReceived:vector(packetBytes) ETV
attr interpolationmode none
attr recordingmode vector(packetBytes)
attr source packetReceived
attr title "packets received, packetBytes"
vector 62 VPNBlockNetwork.blockedServer.app[0] throughput:vector ETV
attr recordingmode vector
attr source throughput(packetReceived)
attr title throughput
attr unit bps
0	0	0	0
0	0	0	0
0	0	0	0
0	0	0	0
0	0	0	0
0	8	1	0
0	21	1.00001172	0
0	72	1.397937252283	0
0	108	1.795874504566	0
0	144	2.193811756849	0
0	180	2.591749009132	0
0	216	2.989686261415	0
0	252	3.387623513698	0
0	288	3.785560765981	0
0	324	4.183498018264	0
0	360	4.581435270547	0
0	396	4.97937252283	0
0	432	5.377309775113	0
0	468	5.775247027396	0
0	504	6.173184279679	0
0	540	6.571121531962	0
0	576	6.969058784245	0
0	612	7.366996036528	0
0	648	7.764933288811	0
0	684	8.162870541094	0
0	720	8.560807793377	0
0	756	8.95874504566	0
0	792	9.356682297943	0
0	828	9.754619550226	0
0	864	10.152556802509	0
0	900	10.550494054792	0
0	936	10.948431307075	0
0	972	11.346368559358	0
0	1008	11.744305811641	0
0	1044	12.142243063924	0
0	1080	12.540180316207	0
0	1116	12.93811756849	0
0	1152	13.336054820773	0
0	1188	13.733992073056	0
0	1224	14.131929325339	0
0	1260	14.529866577622	0
0	1296	14.927803829905	0
0	1332	15.325741082188	0
0	1368	15.723678334471	0
0	1404	16.121615586754	0
0	1440	16.519552839037	0
0	1476	16.91749009132	0
0	1512	17.315427343603	0
0	1548	17.713364595886	0
0	1584	18.111301848169	0
0	1620	18.509239100452	0
0	1656	18.907176352735	0
0	1692	19.305113605018	0
0	1728	19.703050857301	0
0	1764	20.100988109584	0
0	1800	20.498925361867	0
0	1836	20.89686261415	0
0	1872	21.294799866433	0
0	1908	21.692737118716	0
0	1944	22.090674370999	0
0	1980	22.488611623282	0
0	2016	22.886548875565	0
0	2052	23.284486127848	0
0	2088	23.682423380131	0
0	2124	24.080360632414	0
0	2160	24.478297884697	0
0	2196	24.87623513698	0
0	2232	25.274172389263	0
0	2268	25.672109641546	0
0	2304	26.070046893829	0
0	2340	26.467984146112	0
0	2376	26.865921398395	0
0	2412	27.263858650678	0
0	2448	27.661795902961	0
0	2484	28.059733155244	0
0	2520	28.457670407527	0
0	2556	28.85560765981	0
0	2592	29.253544912093	0
0	2628	29.651482164376	0
0	2664	30.049419416659	0
0	2700	30.447356668942	0
0	2736	30.845293921225	0
0	2772	31.243231173508	0
0	2808	31.641168425791	0
0	2844	32.039105678074	0
0	2880	32.437042930357	0
0	2916	32.83498018264	0
0	2952	33.232917434923	0
0	2988	33.630854687206	0
0	3024	34.028791939489	0
0	3060	34.426729191772	0
0	3096	34.824666444055	0
0	3132	35.222603696338	0
0	3168	35.620540948621	0
0	3204	36.018478200904	0
0	3240	36.416415453187	0
0	3276	36.81435270547	0
0	3312	37.212289957753	0
0	3348	37.610227210036	0
0	3384	38.008164462319	0
0	3420	38.406101714602	0
0	3456	38.804038966885	0
0	3492	39.201976219168	0
0	3528	39.599913471451	0
0	3564	39.997850723734	0
0	3600	40.395787976017	0
0	3636	40.7937252283	0
0	3672	41.191662480583	0
0	3708	41.589599732866	0
0	3744	41.987536985149	0
0	3780	42.385474237432	0
0	3816	42.783411489715	0
0	3852	43.181348741998	0
0	3888	43.579285994281	0
0	3924	43.977223246564	0
0	3960	44.375160498847	0
0	3996	44.77309775113	0
0	4032	45.171035003413	0
0	4068	45.568972255696	0
0	4104	45.966909507979	0
0	4140	46.364846760262	0
0	4176	46.762784012545	0
0	4212	47.160721264828	0
0	4248	47.558658517111	0
0	4284	47.956595769394	0
0	4320	48.354533021677	0
0	4356	48.75247027396	0
0	4392	49.150407526243	0
0	4428	49.548344778526	0
0	4464	49.946282030809	0
0	4500	50.344219283092	0
0	4536	50.742156535375	0
0	4572	51.140093787658	0
0	4608	51.538031039941	0
0	4644	51.935968292224	0
0	4680	52.333905544507	0
0	4716	52.73184279679	0
0	4752	53.129780049073	0
0	4788	53.527717301356	0
0	4824	53.925654553639	0
0	4860	54.323591805922	0
0	4896	54.721529058205	0
0	4932	55.119466310488	0
0	4968	55.517403562771	0
0	5004	55.915340815054	0
0	5040	56.313278067337	0
0	5076	56.71121531962	0
0	5112	57.109152571903	0
0	5148	57.507089824186	0
0	5184	57.905027076469	0
0	5220	58.302964328752	0
0	5256	58.700901581035	0
0	5292	59.098838833318	0
0	5328	59.496776085601	0
0	5364	59.894713337884	0
0	5400	60.292650590167	0
0	5436	60.69058784245	0
0	5472	61.088525094733	0
0	5508	61.486462347016	0
0	5544	61.884399599299	0
0	5580	62.282336851582	0
0	5616	62.680274103865	0
0	5652	63.078211356148	0
0	5688	63.476148608431	0
0	5724	63.874085860714	0
0	5760	64.272023112997	0
0	5796	64.66996036528	0
0	5832	65.067897617563	0
0	5868	65.465834869846	0
0	5904	65.863772122129	0
0	5940	66.261709374412	0
0	5976	66.659646626695	0
0	6012	67.057583878978	0
0	6048	67.455521131261	0
0	6084	67.853458383544	0
0	6120	68.251395635827	0
0	6156	68.64933288811	0
0	6192	69.047270140393	0
0	6228	69.445207392676	0
0	6264	69.843144644959	0
0	6300	70.241081897242	0
0	6336	70.639019149525	0
0	6372	71.036956401808	0
0	6408	71.434893654091	0
0	6444	71.832830906374	0
0	6480	72.230768158657	0
0	6516	72.62870541094	0
0	6552	73.026642663223	0
0	6588	73.424579915506	0
0	6624	73.822517167789	0
0	6660	74.220454420072	0
0	6696	74.618391672355	0
0	6732	75.016328924638	0
0	6768	75.414266176921	0
0	6804	75.812203429204	0
0	6840	76.210140681487	0
0	6876	76.60807793377	0
0	6912	77.006015186053	0
0	6948	77.403952438336	0
0	6984	77.801889690619	0
0	7020	78.199826942902	0
0	7056	78.597764195185	0
0	7092	78.995701447468	0
0	7128	79.393638699751	0
0	7164	79.791575952034	0
0	7200	80.189513204317	0
0	7236	80.5874504566	0
0	7272	80.985387708883	0
0	7308	81.383324961166	0
0	7344	81.781262213449	0
0	7380	82.179199465732	0
0	7416	82.577136718015	0
0	7452	82.975073970298	0
0	7488	83.373011222581	0
0	7524	83.770948474864	0
0	7560	84.168885727147	0
0	7596	84.56682297943	0
0	7632	84.964760231713	0
0	7668	85.362697483996	0
0	7704	85.760634736279	0
0	7740	86.158571988562	0
0	7776	86.556509240845	0
0	7812	86.954446493128	0
0	7848	87.352383745411	0
0	7884	87.750320997694	0
0	7920	88.148258249977	0
0	7956	88.54619550226	0
0	7992	88.944132754543	0
0	8028	89.342070006826	0
0	8064	89.740007259109	0
1	0	0	0
1	0	0	0
1	0	0	0
1	0	0	0
1	0	0	0
1	8	1	0
1	21	1.00001172	0
1	72	1.397937252283	0
1	108	1.795874504566	0
1	144	2.193811756849	0
1	180	2.591749009132	0
1	216	2.989686261415	0
1	252	3.387623513698	0
1	288	3.785560765981	0
1	324	4.183498018264	0
1	360	4.581435270547	0
1	396	4.97937252283	0
1	432	5.377309775113	0
1	468	5.775247027396	0
1	504	6.173184279679	0
1	540	6.571121531962	0
1	576	6.969058784245	0
1	612	7.366996036528	0
1	648	7.764933288811	0
1	684	8.162870541094	0
1	720	8.560807793377	0
1	756	8.95874504566	0
1	792	9.356682297943	0
1	828	9.754619550226	0
1	864	10.152556802509	0
1	900	10.550494054792	0
1	936	10.948431307075	0
1	972	11.346368559358	0
1	1008	11.744305811641	0
1	1044	12.142243063924	0
1	1080	12.540180316207	0
1	1116	12.93811756849	0
1	1152	13.336054820773	0
1	1188	13.733992073056	0
1	1224	14.131929325339	0
1	1260	14.529866577622	0
1	1296	14.927803829905	0
1	1332	15.325741082188	0
1	1368	15.723678334471	0
1	1404	16.121615586754	0
1	1440	16.519552839037	0
1	1476	16.91749009132	0
1	1512	17.315427343603	0
1	1548	17.713364595886	0
1	1584	18.111301848169	0
1	1620	18.509239100452	0
1	1656	18.907176352735	0
1	1692	19.305113605018	0
1	1728	19.703050857301	0
1	1764	20.100988109584	0
1	1800	20.498925361867	0
1	1836	20.89686261415	0
1	1872	21.294799866433	0
1	1908	21.692737118716	0
1	1944	22.090674370999	0
1	1980	22.488611623282	0
1	2016	22.886548875565	0
1	2052	23.284486127848	0
1	2088	23.682423380131	0
1	2124	24.080360632414	0
1	2160	24.478297884697	0
1	2196	24.87623513698	0
1	2232	25.274172389263	0
1	2268	25.672109641546	0
1	2304	26.070046893829	0
1	2340	26.467984146112	0
1	2376	26.865921398395	0
1	2412	27.263858650678	0
1	2448	27.661795902961	0
1	2484	28.059733155244	0
1	2520	28.457670407527	0
1	2556	28.85560765981	0
1	2592	29.253544912093	0
1	2628	29.651482164376	0
1	2664	30.049419416659	0
1	2700	30.447356668942	0
1	2736	30.845293921225	0
1	2772	31.243231173508	0
1	2808	31.641168425791	0
1	2844	32.039105678074	0
1	2880	32.437042930357	0
1	2916	32.83498018264	0
1	2952	33.232917434923	0
1	2988	33.630854687206	0
1	3024	34.028791939489	0
1	3060	34.426729191772	0
1	3096	34.824666444055	0
1	3132	35.222603696338	0
1	3168	35.620540948621	0
1	3204	36.018478200904	0
1	3240	36.416415453187	0
1	3276	36.81435270547	0
1	3312	37.212289957753	0
1	3348	37.610227210036	0
1	3384	38.008164462319	0
1	3420	38.406101714602	0
1	3456	38.804038966885	0
1	3492	39.201976219168	0
1	3528	39.599913471451	0
1	3564	39.997850723734	0
1	3600	40.395787976017	0
1	3636	40.7937252283	0
1	3672	41.191662480583	0
1	3708	41.589599732866	0
1	3744	41.987536985149	0
1	3780	42.385474237432	0
1	3816	42.783411489715	0
1	3852	43.181348741998	0
1	3888	43.579285994281	0
1	3924	43.977223246564	0
1	3960	44.375160498847	0
1	3996	44.77309775113	0
1	4032	45.171035003413	0
1	4068	45.568972255696	0
1	4104	45.966909507979	0
1	4140	46.364846760262	0
1	4176	46.762784012545	0
1	4212	47.160721264828	0
1	4248	47.558658517111	0
1	4284	47.956595769394	0
1	4320	48.354533021677	0
1	4356	48.75247027396	0
1	4392	49.150407526243	0
1	4428	49.548344778526	0
1	4464	49.946282030809	0
1	4500	50.344219283092	0
1	4536	50.742156535375	0
1	4572	51.140093787658	0
1	4608	51.538031039941	0
1	4644	51.935968292224	0
1	4680	52.333905544507	0
1	4716	52.73184279679	0
1	4752	53.129780049073	0
1	4788	53.527717301356	0
1	4824	53.925654553639	0
1	4860	54.323591805922	0
1	4896	54.721529058205	0
1	4932	55.119466310488	0
1	4968	55.517403562771	0
1	5004	55.915340815054	0
1	5040	56.313278067337	0
1	5076	56.71121531962	0
1	5112	57.109152571903	0
1	5148	57.507089824186	0
1	5184	57.905027076469	0
1	5220	58.302964328752	0
1	5256	58.700901581035	0
1	5292	59.098838833318	0
1	5328	59.496776085601	0
1	5364	59.894713337884	0
1	5400	60.292650590167	0
1	5436	60.69058784245	0
1	5472	61.088525094733	0
1	5508	61.486462347016	0
1	5544	61.884399599299	0
1	5580	62.282336851582	0
1	5616	62.680274103865	0
1	5652	63.078211356148	0
1	5688	63.476148608431	0
1	5724	63.874085860714	0
1	5760	64.272023112997	0
1	5796	64.66996036528	0
1	5832	65.067897617563	0
1	5868	65.465834869846	0
1	5904	65.863772122129	0
1	5940	66.261709374412	0
1	5976	66.659646626695	0
1	6012	67.057583878978	0
1	6048	67.455521131261	0
1	6084	67.853458383544	0
1	6120	68.251395635827	0
1	6156	68.64933288811	0
1	6192	69.047270140393	0
1	6228	69.445207392676	0
1	6264	69.843144644959	0
1	6300	70.241081897242	0
1	6336	70.639019149525	0
1	6372	71.036956401808	0
1	6408	71.434893654091	0
1	6444	71.832830906374	0
1	6480	72.230768158657	0
1	6516	72.62870541094	0
1	6552	73.026642663223	0
1	6588	73.424579915506	0
1	6624	73.822517167789	0
1	6660	74.220454420072	0
1	6696	74.618391672355	0
1	6732	75.016328924638	0
1	6768	75.414266176921	0
1	6804	75.812203429204	0
1	6840	76.210140681487	0
1	6876	76.60807793377	0
1	6912	77.006015186053	0
1	6948	77.403952438336	0
1	6984	77.801889690619	0
1	7020	78.199826942902	0
1	7056	78.597764195185	0
1	7092	78.995701447468	0
1	7128	79.393638699751	0
1	7164	79.791575952034	0
1	7200	80.189513204317	0
1	7236	80.5874504566	0
1	7272	80.985387708883	0
1	7308	81.383324961166	0
1	7344	81.781262213449	0
1	7380	82.179199465732	0
1	7416	82.577136718015	0
1	7452	82.975073970298	0
1	7488	83.373011222581	0
1	7524	83.770948474864	0
1	7560	84.168885727147	0
1	7596	84.56682297943	0
1	7632	84.964760231713	0
1	7668	85.362697483996	0
1	7704	85.760634736279	0
1	7740	86.158571988562	0
1	7776	86.556509240845	0
1	7812	86.954446493128	0
1	7848	87.352383745411	0
1	7884	87.750320997694	0
1	7920	88.148258249977	0
1	7956	88.54619550226	0
1	7992	88.944132754543	0
1	8028	89.342070006826	0
1	8064	89.740007259109	0
2	0	0	0
3	0	0	0
4	0	0	0
5	0	0	0
5	0	0	0
5	0	0	0
5	0	0	0
5	0	0	0
5	14	1.00000586	0
5	58	1.00023094	0
5	94	1.398144752283	0
5	130	1.796082004566	0
5	166	2.194019256849	0
5	202	2.591956509132	0
5	238	2.989893761415	0
5	274	3.387831013698	0
5	310	3.785768265981	0
5	346	4.183705518264	0
5	382	4.581642770547	0
5	418	4.97958002283	0
5	454	5.377517275113	0
5	490	5.775454527396	0
5	526	6.173391779679	0
5	562	6.571329031962	0
5	598	6.969266284245	0
5	634	7.367203536528	0
5	670	7.765140788811	0
5	706	8.163078041094	0
5	742	8.561015293377	0
5	778	8.95895254566	0
5	814	9.356889797943	0
5	850	9.754827050226	0
5	886	10.152764302509	0
5	922	10.550701554792	0
5	958	10.948638807075	0
5	994	11.346576059358	0
5	1030	11.744513311641	0
5	1066	12.142450563924	0
5	1102	12.540387816207	0
5	1138	12.93832506849	0
5	1174	13.336262320773	0
5	1210	13.734199573056	0
5	1246	14.132136825339	0
5	1282	14.530074077622	0
5	1318	14.928011329905	0
5	1354	15.325948582188	0
5	1390	15.723885834471	0
5	1426	16.121823086754	0
5	1462	16.519760339037	0
5	1498	16.91769759132	0
5	1534	17.315634843603	0
5	1570	17.713572095886	0
5	1606	18.111509348169	0
5	1642	18.509446600452	0
5	1678	18.907383852735	0
5	1714	19.305321105018	0
5	1750	19.703258357301	0
5	1786	20.101195609584	0
5	1822	20.499132861867	0
5	1858	20.89707011415	0
5	1894	21.295007366433	0
5	1930	21.692944618716	0
5	1966	22.090881870999	0
5	2002	22.488819123282	0
5	2038	22.886756375565	0
5	2074	23.284693627848	0
5	2110	23.682630880131	0
5	2146	24.080568132414	0
5	2182	24.478505384697	0
5	2218	24.87644263698	0
5	2254	25.274379889263	0
5	2290	25.672317141546	0
5	2326	26.070254393829	0
5	2362	26.468191646112	0
5	2398	26.866128898395	0
5	2434	27.264066150678	0
5	2470	27.662003402961	0
5	2506	28.059940655244	0
5	2542	28.457877907527	0
5	2578	28.85581515981	0
5	2614	29.253752412093	0
5	2650	29.651689664376	0
5	2686	30.049626916659	0
5	2722	30.447564168942	0
5	2758	30.845501421225	0
5	2794	31.243438673508	0
5	2830	31.641375925791	0
5	2866	32.039313178074	0
5	2902	32.437250430357	0
5	2938	32.83518768264	0
5	2974	33.233124934923	0
5	3010	33.631062187206	0
5	3046	34.028999439489	0
5	3082	34.426936691772	0
5	3118	34.824873944055	0
5	3154	35.222811196338	0
5	3190	35.620748448621	0
5	3226	36.018685700904	0
5	3262	36.416622953187	0
5	3298	36.81456020547	0
5	3334	37.212497457753	0
5	3370	37.610434710036	0